# vtk DataFile Version 3.0.
comment
ASCII
DATASET POLYDATA

POINTS 21626 double
109.638 256.745 300.855
114.032 263.345 295.532
143.178 250.84 223.015
148.482 244.667 222.1
143.178 250.84 223.015
141.88 256.31 215.965
143.178 250.84 223.015
146.8 255.43 230.04
143.178 250.84 223.015
136.825 245.477 224.912
173.947 144.112 250.097
184.462 126.455 254.095
173.947 144.112 250.097
175.843 133.77 243.06
173.947 144.112 250.097
169.518 130.715 254.548
173.947 144.112 250.097
184.325 144.135 264.655
173.947 144.112 250.097
178.37 147.558 229.105
173.947 144.112 250.097
155.582 136.768 257.352
173.947 144.112 250.097
167.375 133.427 268.315
173.947 144.112 250.097
164.29 148.653 258.995
173.947 144.112 250.097
170.875 139.018 271.188
173.947 144.112 250.097
187.81 135.945 235.935
173.947 144.112 250.097
193.32 147.465 246.678
173.947 144.112 250.097
173.032 159.288 245.525
173.947 144.112 250.097
159.097 151.808 245.553
173.947 144.112 250.097
172.963 157.858 262.28
173.947 144.112 250.097
188.603 140.365 258.69
173.947 144.112 250.097
164.27 143.615 232.938
173.947 144.112 250.097
179.235 155.573 231.775
173.947 144.112 250.097
191.314 159.064 244.082
160.608 184.738 148.727
159.755 177.828 153.105
160.608 184.738 148.727
168.05 181.58 141.947
160.608 184.738 148.727
162.846 190.778 157.862
160.608 184.738 148.727
153.59 186.858 144.43
168.84 105.288 166.013
172.517 110.222 171.782
290.123 247.683 132.558
289.77 248.58 121.446
290.123 247.683 132.558
280.35 247.315 135.257
290.123 247.683 132.558
292.76 255.02 132.393
290.123 247.683 132.558
295.962 241.127 134.96
295.338 198.132 251.095
289.21 199.32 241.585
295.338 198.132 251.095
301.598 203.502 250.583
295.338 198.132 251.095
299.445 190.558 253.973
295.338 198.132 251.095
290.735 201.03 256.267
196.817 190.985 167.222
194.697 185.79 160.38
196.817 190.985 167.222
189.22 183.777 178.591
196.817 190.985 167.222
192.987 198.113 167.715
196.817 190.985 167.222
205.085 191.687 168.915
213.952 167.918 214.437
217.45 158.947 211.917
213.952 167.918 214.437
223.327 173.505 203.602
213.952 167.918 214.437
208.307 166.532 206.31
213.952 167.918 214.437
217.575 160.005 219.785
213.952 167.918 214.437
219.39 175.308 220.185
213.952 167.918 214.437
212.5 177.005 222.235
213.952 167.918 214.437
209.302 152.839 231.951
213.952 167.918 214.437
204.375 169.673 212.125
186.233 130.33 138.322
177.805 133.688 141.697
186.233 130.33 138.322
185.008 122.957 133.585
186.233 130.33 138.322
190.995 128.357 143.665
186.233 130.33 138.322
191.425 135.6 136.345
181.542 126.65 226.025
179.472 124.7 234.29
181.542 126.65 226.025
173.673 126.292 224.387
181.542 126.65 226.025
182.046 117.86 218.614
181.542 126.65 226.025
185.578 135.387 227.232
184.382 261.19 277.29
179.773 255.24 274.055
184.382 261.19 277.29
190.792 258.25 275.51
184.382 261.19 277.29
184.27 263.707 285.665
184.382 261.19 277.29
183.412 268.607 274.907
222.879 130.812 289.415
220.777 120.465 298.533
222.879 130.812 289.415
220.94 126.48 303.665
222.879 130.812 289.415
230.228 139.575 299.33
222.879 130.812 289.415
220.227 140.435 287.76
222.879 130.812 289.415
228.21 128.48 282.23
222.879 130.812 289.415
213.53 125.213 282.567
222.879 130.812 289.415
209.963 133.16 282.8
222.879 130.812 289.415
209.14 138.345 297.002
222.879 130.812 289.415
231.798 115.24 289.012
222.879 130.812 289.415
240.083 130.92 289.428
148.125 153.83 172.94
148.045 147.382 167.565
148.125 153.83 172.94
151.945 153.09 179.108
148.125 153.83 172.94
141.88 155.225 176.928
148.125 153.83 172.94
151.825 160.71 168.317
114.162 286.968 214.623
111.73 283.688 211.738
114.162 286.968 214.623
119.438 290.105 215.525
114.162 286.968 214.623
115.53 287.947 221.507
114.162 286.968 214.623
107.87 289.502 212.147
180.257 114.025 170.035
185.72 110.7 162.31
180.257 114.025 170.035
176.97 121.165 166.54
180.257 114.025 170.035
184.815 115.255 177.942
180.257 114.025 170.035
172.517 110.222 171.782
170.005 283.055 198.952
163.882 276.585 201.043
170.005 283.055 198.952
167.687 293.522 194.835
170.005 283.055 198.952
174.715 279.395 192.838
170.005 283.055 198.952
174.428 286.132 205.08
174.977 242.165 307.837
176.61 245.235 300.992
191.895 127.907 121.887
187.568 121.802 125.438
191.895 127.907 121.887
199.692 125.028 116.125
191.895 127.907 121.887
194.528 134.332 128.058
191.895 127.907 121.887
185.76 128.567 117.167
139.724 188.528 121.11
141.312 183.473 112.812
139.724 188.528 121.11
142.278 189.723 112.035
139.724 188.528 121.11
131.018 190.615 120.655
139.724 188.528 121.11
134.91 190.7 127.792
139.724 188.528 121.11
148.347 195.215 122.47
139.724 188.528 121.11
143.952 178.085 127.505
284.95 249.145 192.838
282.81 245.195 198.913
284.95 249.145 192.838
284.773 244.105 186.013
284.95 249.145 192.838
293.975 251.96 193.745
284.95 249.145 192.838
280.418 256.44 188.548
143.98 127.863 246.705
132.59 132.292 245.482
143.98 127.863 246.705
150.463 133.68 245.89
143.98 127.863 246.705
140.157 125.355 240.535
143.98 127.863 246.705
146.105 120.635 251.915
147.52 154.085 137.34
154.42 156.53 131.55
147.52 154.085 137.34
144.692 160.657 142.685
147.52 154.085 137.34
146.237 144.975 140.513
147.52 154.085 137.34
141.412 150.482 134.152
132.757 173.77 183.613
125.787 168.868 190.148
132.757 173.77 183.613
123.838 180.485 178.938
132.757 173.77 183.613
125.083 165.442 174.433
132.757 173.77 183.613
133.918 168.252 194.727
132.757 173.77 183.613
140.145 181.71 194.083
132.757 173.77 183.613
143.21 170.52 184.993
132.757 173.77 183.613
130.23 183.743 179.398
132.757 173.77 183.613
139.195 171.395 177.583
140.192 159.024 198.08
138.752 164.148 207.257
140.192 159.024 198.08
134.85 152.812 199.995
140.192 159.024 198.08
133.918 168.252 194.727
140.192 159.024 198.08
146.45 162.08 187.743
140.192 159.024 198.08
149.225 158.308 202.793
140.192 159.024 198.08
141.582 149.905 197.082
150.847 166.485 140.5
144.692 160.657 142.685
150.847 166.485 140.5
154.945 168.012 147.548
150.847 166.485 140.5
147.257 174.768 138.637
150.847 166.485 140.5
155.588 164.448 134.205
232.695 130.093 233.403
237.458 124.873 234.9
232.695 130.093 233.403
223.49 128.697 235.87
232.695 130.093 233.403
236.26 137.293 226.35
232.695 130.093 233.403
235.053 133.338 239.56
262.425 275.113 239.905
259.288 271.648 238.13
262.425 275.113 239.905
262.535 275.115 232.93
262.425 275.113 239.905
268.296 278.18 244.668
262.425 275.113 239.905
259.798 281.775 242.355
127.79 218.073 288.738
134.423 225.062 287.017
127.79 218.073 288.738
120.44 219.71 287.4
127.79 218.073 288.738
128.873 214.715 297.565
127.79 218.073 288.738
125.717 212.903 281.72
123.004 266.282 299.3
123.752 270.528 298.705
123.004 266.282 299.3
114.032 263.345 295.532
123.004 266.282 299.3
124.827 260.793 290.343
248.97 246.577 118.455
254.905 243.64 122.218
248.97 246.577 118.455
252.058 242.125 112.858
248.97 246.577 118.455
249.025 256.023 116.755
248.97 246.577 118.455
241.77 243.095 122.5
106.862 136.287 148.285
112.567 136.808 152.84
163.275 255.285 210.655
169.59 255.552 204.262
163.275 255.285 210.655
153.79 252.045 210.343
163.275 255.285 210.655
164.042 261.763 214.655
163.275 255.285 210.655
166.025 252.157 218.037
130.07 177.528 138.241
140.893 175.045 134.805
130.07 177.528 138.241
141.627 183.412 149.262
130.07 177.528 138.241
133.398 186.872 135.462
130.07 177.528 138.241
131.703 167.037 140.353
130.07 177.528 138.241
131.18 165.58 125.575
130.07 177.528 138.241
112.918 170.537 140.868
130.07 177.528 138.241
122.13 182.83 143.565
130.07 177.528 138.241
116.985 180.235 130.157
130.07 177.528 138.241
122.745 179.07 125.705
130.07 177.528 138.241
131.97 175.377 154.255
167.02 184.445 190.69
167.488 186.282 182.352
167.02 184.445 190.69
178.523 180.207 196.519
167.02 184.445 190.69
159.27 178.495 193.82
167.02 184.445 190.69
168.622 190.978 198.662
120.895 160.713 179.658
125.083 165.442 174.433
120.895 160.713 179.658
122.948 162.3 188.84
120.895 160.713 179.658
123.303 152.905 179.243
120.895 160.713 179.658
112.538 159.35 176.58
150.68 202.537 204.65
150.314 199.452 196.74
150.68 202.537 204.65
154.59 209.603 207.35
150.68 202.537 204.65
151.502 197.358 212.002
150.68 202.537 204.65
143.875 203.578 200.048
281.952 147.965 261.342
275.265 156.725 267.515
281.952 147.965 261.342
286.743 147.822 265.592
281.952 147.965 261.342
274.947 156.738 254.877
281.952 147.965 261.342
289.193 152.347 249.238
281.952 147.965 261.342
279.783 142.683 253.477
281.952 147.965 261.342
282.52 138.688 259.94
281.952 147.965 261.342
276.87 141.147 273.095
171.863 168.24 295.642
168.792 171.378 302.623
171.863 168.24 295.642
177.44 173.143 292.58
171.863 168.24 295.642
168.683 168.15 286.617
171.863 168.24 295.642
176.535 160.92 301.082
125.717 212.903 281.72
118.367 214.54 280.382
125.717 212.903 281.72
126.862 205.16 280.925
125.717 212.903 281.72
131.93 214.097 277.14
296.38 259.015 286.075
295.477 264.902 293.558
296.38 259.015 286.075
288.832 255.5 282.143
296.38 259.015 286.075
300.275 254.137 289.667
296.38 259.015 286.075
301.175 261.495 279.245
188.445 164.65 199.92
192.195 161.285 207.56
188.445 164.65 199.92
189.792 173.045 198.697
188.445 164.65 199.92
181.94 161.078 195.855
188.445 164.65 199.92
193.66 159.433 193.825
120.752 258.953 223.292
122.132 254.298 224.487
120.752 258.953 223.292
114.07 260.735 219.825
120.752 258.953 223.292
125.017 264.918 220.97
120.752 258.953 223.292
121.037 258.42 229.847
247.686 200.934 238.74
240.78 194.358 233.76
247.686 200.934 238.74
248.176 196.916 228.682
247.686 200.934 238.74
243.053 208.988 237.472
247.686 200.934 238.74
261.572 195.495 244.662
247.686 200.934 238.74
245.958 193.792 247.8
247.686 200.934 238.74
246.118 208.105 244.532
114.585 161.977 140.238
122.98 159.075 141.59
183.678 140.487 203.575
180.098 144.895 208.977
183.678 140.487 203.575
181.707 139.072 199.2
183.678 140.487 203.575
180.658 133.99 202.57
183.678 140.487 203.575
192.088 143.405 211.27
166.84 195.098 181.38
168.412 198.545 174.645
166.84 195.098 181.38
167.488 186.282 182.352
166.84 195.098 181.38
159.005 197.293 178.382
[...]
POINT_DATA 21626
SCALARS conductance double 1
LOOKUP_TABLE default
20302.2
20302.2
7454.49
7454.49
6264.99
6264.99
2366.28
2366.28
8395.83
8395.83
3929.28
3929.28
60698.6
60698.6
28165.6
28165.6
17589.3
17589.3
33972.4
33972.4
5402.81
5402.81
21827.9
21827.9
63279
63279
21605.5
21605.5
27982.4
27982.4
33532.4
33532.4
32314
32314
3269.2
3269.2
29430.7
29430.7
37605.4
37605.4
2672.43
2672.43
72177.3
72177.3
75328.6
75328.6
42178
42178
2774.7
2774.7
46115.9
46115.9
42727.9
42727.9
15026.4
15026.4
35308.5
35308.5
10466.6
10466.6
33592.2
33592.2
9232.1
9232.1
4574.48
4574.48
47080.7
47080.7
28678
28678
37233.3
37233.3
7901.59
7901.59
5954.72
5954.72
20291.5
20291.5
24029.4
24029.4
60137.1
60137.1
2115.28
2115.28
52261.3
52261.3
39656.2
39656.2
17400
17400
16861
16861
15768.8
15768.8
17075.7
17075.7
4583.76
4583.76
13350.8
13350.8
30234.1
30234.1
16674.5
16674.5
12653.9
12653.9
27223.4
27223.4
12963.8
12963.8
3497.8
3497.8
15514.6
15514.6
31730.9
31730.9
14165.8
14165.8
34199.3
34199.3
63404.5
63404.5
19964
19964
4137.54
4137.54
54475.4
54475.4
54215.1
54215.1
54875.8
54875.8
58629.4
58629.4
49446.9
49446.9
17666.7
17666.7
4034
4034
6853.92
6853.92
22592
22592
14950.8
14950.8
10304.4
10304.4
26546.9
26546.9
28887.5
28887.5
43859.5
43859.5
37495.8
37495.8
2175.36
2175.36
2474.81
2474.81
3024.59
3024.59
3093.25
3093.25
10277.5
10277.5
58336.3
58336.3
18586.7
18586.7
22507.6
22507.6
15160.2
15160.2
12340.3
12340.3
2104.88
2104.88
4801.47
4801.47
17835
17835
40945.2
40945.2
54919.4
54919.4
19449
19449
24988.8
24988.8
21862.1
21862.1
10287.5
10287.5
28958.1
28958.1
14324.5
14324.5
4799.54
4799.54
5304.08
5304.08
14327.1
14327.1
5766.6
5766.6
13351.1
13351.1
5462.42
5462.42
3344.6
3344.6
12476
12476
49735.1
49735.1
18384.7
18384.7
58090.4
58090.4
18547
18547
56041.1
56041.1
59612.8
59612.8
31960.3
31960.3
59870.7
59870.7
16348.4
16348.4
62995.5
62995.5
33011.7
33011.7
16484
16484
16423.1
16423.1
5749
5749
51848.6
51848.6
51427.1
51427.1
6784.49
6784.49
7032.55
7032.55
6863.35
6863.35
7491.12
7491.12
26136
26136
7099.84
7099.84
3085.18
3085.18
19207.1
19207.1
25342.9
25342.9
26083.1
26083.1
28256.6
28256.6
25641.2
25641.2
6122.8
6122.8
37094
37094
26650.3
26650.3
11562.2
11562.2
17213.4
17213.4
48896.2
48896.2
47951.9
47951.9
32031.8
32031.8
24981.6
24981.6
2343.69
2343.69
18375.9
18375.9
18525.1
18525.1
9565.8
9565.8
3018.81
3018.81
21785.1
21785.1
11376.1
11376.1
44885.4
44885.4
12066.6
12066.6
26880.6
26880.6
44547.9
44547.9
17274.8
17274.8
4476.85
4476.85
22365.8
22365.8
25482.3
25482.3
19803.1
19803.1
3267.28
3267.28
15631.2
15631.2
49274.1
49274.1
2106.82
2106.82
26438.7
26438.7
38012.2
38012.2
14593.7
14593.7
21973.7
21973.7
7771.68
7771.68
35849.6
35849.6
8828.88
8828.88
2633.53
2633.53
14463.1
14463.1
12952.3
12952.3
21346.1
21346.1
14961.5
14961.5
6432.37
6432.37
21847.6
21847.6
53577.5
53577.5
15627.1
15627.1
12672.8
12672.8
12373.9
12373.9
2793.42
2793.42
2759.44
2759.44
12167.2
12167.2
14494.3
14494.3
15762.5
15762.5
7023.57
7023.57
7598.05
7598.05
32528.8
32528.8
13286.8
13286.8
3671.25
3671.25
9371.06
9371.06
15747.1
15747.1
4176.66
4176.66
17698.3
17698.3
14744.5
14744.5
20585.2
20585.2
20087.6
20087.6
40757.8
40757.8
75295.5
75295.5
12752.5
12752.5
65260.8
65260.8
31604.3
31604.3
12331.2
12331.2
11524.2
11524.2
15410.5
15410.5
14033.5
14033.5
19167.3
19167.3
12009.6
12009.6
11344.6
11344.6
4920.64
4920.64
10611.9
10611.9
4926.41
4926.41
18196.8
18196.8
25551.3
25551.3
15771.6
15771.6
56076.5
56076.5
47031.6
47031.6
50468.6
50468.6
28674.3
28674.3
52278
52278
51605.7
51605.7
2534.17
2534.17
32069.2
32069.2
16708.6
16708.6
49154.7
49154.7
20646.9
20646.9
17020.5
17020.5
27253
27253
14704.7
14704.7
3221.9
3221.9
26217
26217
19533.2
19533.2
63088
63088
43621.6
43621.6
34351.3
34351.3
17074.9
17074.9
12479.7
12479.7
4969.78
4969.78
19714
19714
44496
44496
55359.7
55359.7
8029.57
8029.57
25318.6
25318.6
23012.8
23012.8
23212.2
23212.2
3491
3491
6398.25
6398.25
3295.44
3295.44
24993
24993
16405.3
16405.3
2236.05
2236.05
4639.87
4639.87
14789
14789
16429.2
16429.2
17353.5
17353.5
15784.1
15784.1
15094.7
15094.7
14174.7
14174.7
19217.3
19217.3
14956.2
14956.2
4028.91
4028.91
2362.42
2362.42
2751.78
2751.78
9752.74
9752.74
25970.8
25970.8
12155.5
12155.5
20101.6
20101.6
20091.4
20091.4
20739.4
20739.4
33356.5
33356.5
5380.87
5380.87
6822.6
6822.6
20006.3
20006.3
15126.3
15126.3
7605.56
7605.56
46610
46610
36422.4
36422.4
18420
18420
9085.67
9085.67
6474.81
6474.81
27596.9
27596.9
22677.8
22677.8
16598.7
16598.7
24017.1
24017.1
25109.4
25109.4
24396.5
24396.5
20114
20114
3541.62
3541.62
13523.6
13523.6
18212
18212
6006.54
6006.54
33821.9
33821.9
20164.2
20164.2
14902.8
14902.8
64060.1
64060.1
43607.4
43607.4
36095.8
36095.8
12387.6
12387.6
7213.32
7213.32
2410.66
2410.66
18407.9
18407.9
75070.8
75070.8
24064.3
24064.3
20469.9
20469.9
52715
52715
18156.8
18156.8
5070.66
5070.66
52172.8
52172.8
14611.6
14611.6
3141.5
3141.5
5025.79
5025.79
8652.06
8652.06
7578.91
7578.91
29281.4
29281.4
8786.79
8786.79
26543.4
26543.4
11164.1
11164.1
18673.1
18673.1
47722.7
47722.7
74247.8
74247.8
31448.9
31448.9
9920.35
9920.35
6978.76
6978.76
22281
22281
5491.15
5491.15
24620.4
24620.4
19424.7
19424.7
23269.3
23269.3
11729.6
11729.6
7765.04
7765.04
7310.05
7310.05
3947.38
3947.38
3726.76
3726.76
26237.3
26237.3
5915.79
5915.79
13836.6
13836.6
16637.3
16637.3
37606.4
37606.4
41745.9
41745.9
52022
52022
23497.4
23497.4
49652.1
49652.1
14597
14597
2732.69
2732.69
2704.59
2704.59
12179.3
12179.3
15023.6
15023.6
25214.3
25214.3
67474.7
67474.7
18416.4
18416.4
6492.64
6492.64
10111.4
10111.4
18319.2
18319.2
9463.14
9463.14
2224.19
2224.19
7719.06
7719.06
34395.2
34395.2
31046.5
31046.5
12975.8
12975.8
12260.1
12260.1
14386.8
14386.8
23492.8
23492.8
35351.1
35351.1
13798.9
13798.9
36010.7
36010.7
4850.79
4850.79
15749.3
15749.3
2701.31
2701.31
13643.8
13643.8
6603.58
6603.58
30420.1
30420.1
14942
14942
2599.04
2599.04
10522.8
10522.8
35375.4
35375.4
13116.7
13116.7
2332.51
2332.51
6771.14
6771.14
3126.38
3126.38
7034.34
7034.34
6725.59
6725.59
6501.98
6501.98
10485.1
10485.1
13589.9
13589.9
30346.2
30346.2
12569.4
12569.4
13097.4
13097.4
12598.9
12598.9
13630.5
13630.5
33710.1
33710.1
2135.29
2135.29
24158.3
24158.3
35516.3
35516.3
40112.3
40112.3
62884
62884
35636.2
35636.2
2052.78
2052.78
14845.5
14845.5
15550.9
15550.9
41429
41429
46374.8
46374.8
22537.9
22537.9
71595.5
71595.5
2527.6
2527.6
26464.3
26464.3
28448
28448
5855.74
5855.74
24578.8
24578.8
7264.3
7264.3
68306.8
68306.8
21836.1
21836.1
37902.2
37902.2
75358.9
75358.9
31361.3
31361.3
12888.1
12888.1
8763.19
8763.19
5264.78
5264.78
16536.8
16536.8
4190.68
4190.68
9246.29
9246.29
3008.79
3008.79
14252
14252
6937.81
6937.81
16913
16913
12254.3
12254.3
2426.08
2426.08
61138.8
61138.8
35308.3
35308.3
25918.6
25918.6
2636.83
2636.83
47622.8
47622.8
58037
58037
44807.3
44807.3
96811.2
96811.2
2816.87
2816.87
3658.06
3658.06
69022.2
69022.2
7593.64
7593.64
10026.6
10026.6
4550.23
4550.23
14606.6
14606.6
16062.1
16062.1
43229.3
43229.3
2373.6
2373.6
3031.58
3031.58
4817.92
4817.92
5557.44
5557.44
14886.9
14886.9
8728
8728
29552.3
29552.3
3597.69
3597.69
6523.38
6523.38
3683.52
3683.52
44658.5
44658.5
14789.9
14789.9
2300.45
2300.45
42814
42814
12297.3
12297.3
3131.99
3131.99
11676.4
11676.4
24159.1
24159.1
17996.9
17996.9
7210.29
7210.29
20438.6
20438.6
17948.7
17948.7
3887.46
3887.46
2788.4
2788.4
18891.1
18891.1
5888.55
5888.55
10763.3
10763.3
2617.38
2617.38
11860.1
11860.1
17638.7
17638.7
9556.83
9556.83
4488.42
4488.42
17211
17211
21179.1
21179.1
2958.81
2958.81
4516.5
4516.5
18354.1
18354.1
2535.16
2535.16
12783.8
12783.8
36756.3
36756.3
43923.6
43923.6
8270.63
8270.63
54872
54872
52864.9
52864.9
43908.7
43908.7
17980.8
17980.8
28250.9
28250.9
11617.8
11617.8
13638.2
13638.2
3263.95
3263.95
2221.11
2221.11
14957.4
14957.4
7493.34
7493.34
10798.9
10798.9
24740.9
24740.9
3388.03
3388.03
13588.1
13588.1
11281.5
11281.5
2365.16
2365.16
13503.9
13503.9
22323.7
22323.7
6570.13
6570.13
2248.45
2248.45
5636.95
5636.95
5499.57
5499.57
6039.53
6039.53
8905.46
8905.46
17432.2
17432.2
21131.8
21131.8
59144.4
59144.4
15917
15917
13518
13518
19270.9
19270.9
35913.1
35913.1
15376.5
15376.5
14239
14239
35029.9
35029.9
22303.6
22303.6
9042.29
9042.29
26156.5
26156.5
14859.6
14859.6
26065
26065
59433
59433
9371.47
9371.47
41782.3
41782.3
19999.8
19999.8
11485.3
11485.3
27773.4
27773.4
2589.92
2589.92
19429.7
19429.7
4811.51
4811.51
12656
12656
20139.5
20139.5
3523.54
3523.54
40370.4
40370.4
14473.8
14473.8
16359.6
16359.6
15174.6
15174.6
41796.8
41796.8
34107.8
34107.8
10595.8
10595.8
14189.1
14189.1
12590.6
12590.6
12262.1
12262.1
18657.1
18657.1
13181
13181
49462.3
49462.3
8945.47
8945.47
48845.8
48845.8
20893.6
20893.6
12893.5
12893.5
17144.5
17144.5
40814.1
40814.1
12976.6
12976.6
47209.3
47209.3
16134.8
16134.8
5930.55
5930.55
24213.4
24213.4
20571.4
20571.4
12119.4
12119.4
16379.4
16379.4
23575.7
23575.7
15038.6
15038.6
26715.4
26715.4
13031.1
13031.1
37635.9
37635.9
13548.4
13548.4
38997.2
38997.2
13864.1
13864.1
47736.9
47736.9
15687.1
15687.1
66989.9
66989.9
36495.9
36495.9
11483.8
11483.8
16478.8
16478.8
53982.3
53982.3
46383.8
46383.8
49494.6
49494.6
35750.1
35750.1
20568.9
20568.9
15823.2
15823.2
3575.3
3575.3
2665.05
2665.05
3630.17
3630.17
2508.83
2508.83
4349.79
4349.79
14670.9
14670.9
4733.35
4733.35
25482.4
25482.4
18820.7
18820.7
24178.4
24178.4
57273.8
57273.8
27219.9
27219.9
25492.9
25492.9
6951.51
6951.51
21215.1
21215.1
11942
11942
35315.6
35315.6
15756.6
15756.6
9408.14
9408.14
20550.8
20550.8
50961.4
50961.4
25675
25675
14852.4
14852.4
7743.61
7743.61
13717
13717
13912.3
13912.3
24603.6
24603.6
7058.07
7058.07
5696.42
5696.42
21487.7
21487.7
15913.7
15913.7
28225.8
28225.8
20012.9
20012.9
46151.1
46151.1
49943.1
49943.1
16072.5
16072.5
10624.1
10624.1
12770.3
12770.3
2573.59
2573.59
8838.94
8838.94
71975
71975
21495.3
21495.3
18825.6
18825.6
69205.2
69205.2
19944.8
19944.8
9115.37
9115.37
27525.9
27525.9
105119
105119
22598.3
22598.3
3195.76
3195.76
30248.1
30248.1
44624.6
44624.6
22391.6
22391.6
2871.13
2871.13
26883
26883
6849.7
6849.7
22513.1
22513.1
10518.8
10518.8
26997.5
26997.5
31720.6
31720.6
12417.4
12417.4
3541.25
3541.25
4005.05
4005.05
5227.88
5227.88
7623.12
7623.12
2405.28
2405.28
3886.96
3886.96
13362.1
13362.1
12328.2
12328.2
12412.7
12412.7
13115.5
13115.5
18166.1
18166.1
3847.61
3847.61
2347.01
2347.01
6686.11
6686.11
7715.33
7715.33
4522.52
4522.52
5310.59
5310.59
3326.42
3326.42
20988
20988
7575.09
7575.09
8680.52
8680.52
17034.2
17034.2
42983.2
42983.2
42857.2
42857.2
6975.31
6975.31
2527.26
2527.26
2469.62
2469.62
6479.34
6479.34
13830.8
13830.8
13551.6
13551.6
27475.5
27475.5
25709.2
25709.2
21991.7
21991.7
35318
35318
5950.64
5950.64
10131.6
10131.6
2768.68
2768.68
11886.4
11886.4
2970.38
2970.38
11429.5
11429.5
5487.44
5487.44
1906.72
1906.72
20198.3
20198.3
13681.5
13681.5
2556.15
2556.15
27809.4
27809.4
5714.27
5714.27
39523.9
39523.9
35866.4
35866.4
18718.2
18718.2
29536
29536
31870.4
31870.4
17552.5
17552.5
6419.93
6419.93
18263
18263
34082.2
34082.2
19475.9
19475.9
14796.5
14796.5
4665.89
4665.89
36085.2
36085.2
12183
12183
12287.9
12287.9
36809.2
36809.2
2323.78
2323.78
10274.6
10274.6
10634.2
10634.2
2116.51
2116.51
16187.9
16187.9
37608.6
37608.6
10793.9
10793.9
27755.4
27755.4
34387.5
34387.5
14338.5
14338.5
7839.05
7839.05
26453.1
26453.1
22521.3
22521.3
61467.2
61467.2
39576
39576
6971.63
6971.63
20992.2
20992.2
18093.9
18093.9
20006.8
20006.8
2305.67
2305.67
2499.09
2499.09
3280.99
3280.99
28757.4
28757.4
15287.8
15287.8
17833.7
17833.7
9161.54
9161.54
2791.77
2791.77
34627.2
34627.2
12533.9
12533.9
15565.3
15565.3
31786.7
31786.7
27275.6
27275.6
23979.1
23979.1
30853.6
30853.6
21496
21496
7963.13
7963.13
5750.4
5750.4
13350.7
13350.7
28061.1
28061.1
14956.9
14956.9
22430.5
22430.5
20721.2
20721.2
13830.6
13830.6
14401.1
14401.1
12725.1
12725.1
15795.1
15795.1
12389.6
12389.6
71993.5
71993.5
7857.51
7857.51
51315.8
51315.8
61171.7
61171.7
36513.8
36513.8
2680.77
2680.77
19505.8
19505.8
15218.5
15218.5
13460.2
13460.2
2209.88
2209.88
51208
51208
13460.2
13460.2
14479.8
14479.8
41981.8
41981.8
18553.5
18553.5
9688.94
9688.94
15605.3
15605.3
3047.19
3047.19
18033.5
18033.5
2340.67
2340.67
11676.6
11676.6
9476.61
9476.61
2374.72
2374.72
3678.83
3678.83
19428
19428
14332.8
14332.8
2125.6
2125.6
4491.71
4491.71
13233.9
13233.9
14737.9
14737.9
8214.42
8214.42
22930.1
22930.1
14412.4
14412.4
11072.9
11072.9
10408.3
10408.3
31104.1
31104.1
14589.1
14589.1
25302.1
25302.1
16826.1
16826.1
10223.9
10223.9
2574.17
2574.17
14182.3
14182.3
27174.9
27174.9
15055.7
15055.7
74100.4
74100.4
64822.4
64822.4
21594.4
21594.4
53795
53795
76224.1
76224.1
31573.7
31573.7
15828
15828
9650.09
9650.09
18344.2
18344.2
22212.8
22212.8
25055
25055
38788.7
38788.7
35451.7
35451.7
34467.1
34467.1
56836.3
56836.3
15042.1
15042.1
2023.27
2023.27
13420.1
13420.1
23791.7
23791.7
2325.78
2325.78
15233.6
15233.6
6475.39
6475.39
2470.42
2470.42
6042.31
6042.31
11258.7
11258.7
17716.3
17716.3
15653.6
15653.6
14781.3
14781.3
7203.99
7203.99
39189.9
39189.9
6359.14
6359.14
41645.3
41645.3
4211.16
4211.16
14385.4
14385.4
6446.82
6446.82
9892.02
9892.02
10794.3
10794.3
2154.36
2154.36
12508.6
12508.6
7250.56
7250.56
20558.4
20558.4
2333.05
2333.05
9951.97
9951.97
27019.6
27019.6
15094.2
15094.2
54727.8
54727.8
13410.4
13410.4
26879.5
26879.5
5213.3
5213.3
10719.6
10719.6
15017
15017
16275.3
16275.3
19583.3
19583.3
11231.2
11231.2
6287.87
6287.87
23384.8
23384.8
13802.7
13802.7
29024.9
29024.9
6356.29
6356.29
3818.48
3818.48
2531.79
2531.79
4895.21
4895.21
2756.01
2756.01
9025.18
9025.18
27870.9
27870.9
9146.36
9146.36
12280.4
12280.4
11677.2
11677.2
65208.1
65208.1
43647.2
43647.2
28118.6
28118.6
25482.9
25482.9
46645.4
46645.4
17712.8
17712.8
49046
49046
17495.2
17495.2
35790.9
35790.9
24890.9
24890.9
46550.3
46550.3
52526.7
52526.7
54612.2
54612.2
10473.9
10473.9
4222.65
4222.65
2886.6
2886.6
10595
10595
38479.2
38479.2
36506.9
36506.9
35240.5
35240.5
40782.3
40782.3
12747.8
12747.8
34123.5
34123.5
12189.7
12189.7
16950.7
16950.7
2340.95
2340.95
11888.4
11888.4
22053.7
22053.7
12840.4
12840.4
15792.1
15792.1
2230.79
2230.79
11135.5
11135.5
4764.81
4764.81
24569.8
24569.8
9255.99
9255.99
36236.5
36236.5
20442.4
20442.4
6138.9
6138.9
34249.3
34249.3
12744.6
12744.6
61318.6
61318.6
14674.5
14674.5
3641.94
3641.94
15063.2
15063.2
21678.4
21678.4
40212.2
40212.2
55064.2
55064.2
14318.6
14318.6
7016.3
7016.3
2132.83
2132.83
20922.1
20922.1
15144.8
15144.8
5197.03
5197.03
5274.83
5274.83
3491.06
3491.06
3516.1
3516.1
5253.15
5253.15
12361.2
12361.2
95811.3
95811.3
18200.1
18200.1
19466.9
19466.9
23253.8
23253.8
65690
65690
20054.1
20054.1
73069.8
73069.8
23280
23280
8009.42
8009.42
70879.8
70879.8
17396.1
17396.1
8572.34
8572.34
2835.98
2835.98
69360.5
69360.5
22089.6
22089.6
22331
22331
13938.6
13938.6
11470.4
11470.4
2516.78
2516.78
2233.17
2233.17
7597.7
7597.7
7662.48
7662.48
13475.2
13475.2
24349.6
24349.6
8293.63
8293.63
3199.44
3199.44
26695
26695
28457.5
28457.5
13914
13914
11006.2
11006.2
13010.1
13010.1
15080.9
15080.9
21296.4
21296.4
66172
66172
56419.8
56419.8
17719.7
17719.7
62520.7
62520.7
7283.34
7283.34
9836.2
9836.2
7825.6
7825.6
69438.5
69438.5
6900.04
6900.04
31301.9
31301.9
15224.1
15224.1
34991.4
34991.4
13212.8
13212.8
2626.61
2626.61
15942.5
15942.5
8829.6
8829.6
27660.2
27660.2
7759.35
7759.35
3459.12
3459.12
5264.45
5264.45
5200.4
5200.4
12684.5
12684.5
14810
14810
15773.6
15773.6
25446.7
25446.7
17548.5
17548.5
16276.3
16276.3
16688.6
16688.6
15485.6
15485.6
45382
45382
25650.4
25650.4
2919.35
2919.35
17188.5
17188.5
15318.1
15318.1
55619.5
55619.5
17704.7
17704.7
63795.1
63795.1
9407.79
9407.79
31985.2
31985.2
37983.7
37983.7
17992.3
17992.3
3101.87
3101.87
48412
48412
52762.9
52762.9
2736.21
2736.21
11519.5
11519.5
2892.77
2892.77
2465.31
2465.31
12312.4
12312.4
13298.3
13298.3
3087.15
3087.15
4206.37
4206.37
20293.6
20293.6
14193.3
14193.3
2745.67
2745.67
43447.8
43447.8
40719.2
40719.2
12275.1
12275.1
12914.1
12914.1
2665.44
2665.44
12820.7
12820.7
11995.7
11995.7
13162.3
13162.3
12124
12124
5146.62
5146.62
2886.47
2886.47
2794.62
2794.62
14531.7
14531.7
17958.2
17958.2
19024.4
19024.4
15549.7
15549.7
27951.1
27951.1
12265.6
12265.6
19842.5
19842.5
69276.8
69276.8
27718.2
27718.2
13116.3
13116.3
25851.5
25851.5
11706.3
11706.3
7974.34
7974.34
26799.8
26799.8
13772.7
13772.7
2329.15
2329.15
12360.6
12360.6
15212.9
15212.9
18881.5
18881.5
14573.4
14573.4
11544.8
11544.8
12326.3
12326.3
4656.02
4656.02
14252
14252
4143.46
4143.46
30583.8
30583.8
22283.7
22283.7
36822
36822
12974.4
12974.4
37971.9
37971.9
21067.5
21067.5
14152
14152
16775.8
16775.8
36302.5
36302.5
49463.9
49463.9
14236.7
14236.7
18659.5
18659.5
44467.8
44467.8
5657.91
5657.91
33444.7
33444.7
36335.6
36335.6
29355.6
29355.6
40805.5
40805.5
3324.87
3324.87
44374.7
44374.7
27333.9
27333.9
2550.74
2550.74
17038
17038
66124.9
66124.9
20492.6
20492.6
62702.3
62702.3
18354.3
18354.3
6018.68
6018.68
24439.2
24439.2
2403.64
2403.64
32452.8
32452.8
22646.4
22646.4
14756.8
14756.8
38768.6
38768.6
26794.4
26794.4
29602.8
29602.8
15748.6
15748.6
12262.2
12262.2
6446.88
6446.88
9013.66
9013.66
33684.1
33684.1
11976.3
11976.3
12181.1
12181.1
30966.1
30966.1
2671.79
2671.79
81483.5
81483.5
49673.1
49673.1
40587.3
40587.3
10043.2
10043.2
15134.1
15134.1
20574.2
20574.2
15871.4
15871.4
16402.3
16402.3
14077.9
14077.9
51366.2
51366.2
13458.4
13458.4
25294.3
25294.3
12257.3
12257.3
57456.7
57456.7
21930.6
21930.6
11734.3
11734.3
50639.8
50639.8
19549.5
19549.5
18234
18234
28424.3
28424.3
58465
58465
69836.7
69836.7
24034.4
24034.4
17622.2
17622.2
30629.7
30629.7
123413
123413
29298.4
29298.4
12912.8
12912.8
2544.85
2544.85
14701.1
14701.1
9484.78
9484.78
2489.24
2489.24
2388.89
2388.89
42222.6
42222.6
2131.73
2131.73
2430.54
2430.54
9530.22
9530.22
6743.65
6743.65
3806.61
3806.61
18409.4
18409.4
15417.1
15417.1
17746.1
17746.1
14825.4
14825.4
17233.7
17233.7
3439.67
3439.67
34623.4
34623.4
49595.2
49595.2
9877.5
9877.5
2098.06
2098.06
14421.8
14421.8
54886.6
54886.6
49911.2
49911.2
19214.8
19214.8
79229.2
79229.2
2569.79
2569.79
53805
53805
10041.3
10041.3
15480.8
15480.8
14443
14443
15020.9
15020.9
37756.9
37756.9
8016.95
8016.95
14046.2
14046.2
2276.9
2276.9
9095.47
9095.47
16702.7
16702.7
42342.9
42342.9
10982.3
10982.3
13789.2
13789.2
2308.15
2308.15
3016.9
3016.9
46922.2
46922.2
18639.1
18639.1
12595.2
12595.2
59870.9
59870.9
11252.4
11252.4
2415.42
2415.42
49261.3
49261.3
14301
14301
51924.7
51924.7
11067.2
11067.2
13449.1
13449.1
12842.3
12842.3
9263.18
9263.18
20211.3
20211.3
2920.12
2920.12
26777
26777
16588.1
16588.1
13417.1
13417.1
23795.4
23795.4
15281.6
15281.6
14565.5
14565.5
14124.2
14124.2
34196.1
34196.1
2427.58
2427.58
100777
100777
32204.9
32204.9
7871.91
7871.91
3339.83
3339.83
9836
9836
17314.2
17314.2
10624.7
10624.7
16814.7
16814.7
5739.76
5739.76
5528.84
5528.84
5898.47
5898.47
12682.4
12682.4
29219.2
29219.2
3942.56
3942.56
14768
14768
9680.99
9680.99
2905.21
2905.21
9290.48
9290.48
2501.89
2501.89
7894.33
7894.33
2341.64
2341.64
17731
17731
23651.5
23651.5
14993.7
14993.7
13607.3
13607.3
2790.68
2790.68
2354.85
2354.85
18108.4
18108.4
53812.7
53812.7
38885.7
38885.7
14191.9
14191.9
32928.7
32928.7
4334.3
4334.3
57449.3
57449.3
4627.99
4627.99
14278.8
14278.8
18243.5
18243.5
7251.17
7251.17
56587.6
56587.6
46588.5
46588.5
13538.5
13538.5
24205.6
24205.6
22405.8
22405.8
25506.5
25506.5
37368.2
37368.2
63944.1
63944.1
59534.4
59534.4
19361
19361
12555
12555
41119.2
41119.2
48324.4
48324.4
10946.2
10946.2
21451.9
21451.9
71458.6
71458.6
10371.7
10371.7
2267.94
2267.94
9259.09
9259.09
7568.94
7568.94
30238.5
30238.5
47258.2
47258.2
22807.3
22807.3
19875.4
19875.4
8353.22
8353.22
40474
40474
27528
27528
12927
12927
14880.1
14880.1
19435
19435
7121.96
7121.96
12630.4
12630.4
20140.3
20140.3
14194.1
14194.1
33186.7
33186.7
2353.56
2353.56
29797.1
29797.1
37778.2
37778.2
38828.4
38828.4
15192.4
15192.4
65119.5
65119.5
55707.9
55707.9
11236.1
11236.1
65038.5
65038.5
31566.3
31566.3
6553.12
6553.12