# vtk DataFile Version 3.0.
comment
ASCII
DATASET POLYDATA

POINTS 1638 double
148.16 183.68 101.2
178 260.78 131.29
271.82 205.77 248.26
212.12 114.93 188.94
215.62 152.76 316.37
302.08 149.71 142.61
283.89 178.16 193.53
217.73 201.1 102
136.1 107.23 99.344
273.1 272.12 274.08
179.34 111.8 128.72
313.04 144.2 262.23
117.83 276.95 117.78
134.15 150.57 315.69
168.83 168.25 269.3
155 288.02 115.94
284.21 286.23 315.43
270.01 113.65 285.75
129.76 156.83 117.09
293.73 154.9 96.067
97.271 227.02 235.61
120.85 142.85 202.41
245.1 297.53 255.51
268.79 217.52 119.55
177.36 185.29 263.21
144.04 245.14 234.15
242.69 220.48 156.55
124.52 243.25 102.78
100.26 181.96 100.2
162.95 195.54 142.1
243.51 167.48 99.74
282.45 236.24 175.21
119.11 300.42 155.72
251.72 133.17 310.25
205.04 249.47 289.99
148.1 175.41 299.5
306.87 250.18 255.48
154.58 308.01 115.96
100.08 97.804 187.45
234.31 312.81 138.6
229.77 195.64 211.99
316.73 147.97 221.57
192.68 147.71 233.77
249.98 268.36 163.05
204.88 175.28 96.997
160.55 178.84 254.49
202.73 180.29 168.64
136.86 182.14 314.61
163.89 317.92 140.84
134.86 187.34 223.45
248.93 199.8 143.63
172.47 257.71 302.77
170.52 283.29 131.44
233.28 305.87 119.87
134.72 309.92 231.55
235.18 288.16 202.52
214.74 180.12 206.88
123.43 307.66 266.63
127.45 268.41 266.97
242.4 237.95 255.4
200.11 196.53 180.01
111.63 299.37 137.2
183.01 290.65 194.78
215.04 259.57 275.92
220.54 309.57 189.22
229.97 263.75 195.07
124.84 192.92 132.57
154.66 228.4 133.29
162.2 289.66 227.51
310.12 118.23 310.91
263.22 93.393 191.71
173.11 154.06 186.42
177.51 163.17 286.59
285.06 258.63 164.69
181.55 168.61 305.4
248.75 187.43 310.85
172.47 181.5 152.7
252.25 93.629 317.46
97.664 211.57 200.13
114.25 217.89 252.47
233.85 140.44 288.99
277.91 153.33 213.7
165.43 171.85 222.72
159.8 150.94 170.23
257.85 208.46 234.21
313 283.76 261.45
234.98 185.87 228.64
124.74 126.97 190.89
276.39 263.54 311.41
196.54 298.31 207.36
213.74 230.89 277.24
195.25 296.09 290.05
202.1 190.89 109.18
109.47 100.14 204.98
162.81 112.98 275.12
138.6 131.7 217.7
226.56 139.3 234.79
145.7 140.13 296.55
237.4 170.45 291.33
162.76 261.15 144.24
231.94 239.64 130.99
215.45 103.53 252.26
176.33 134.12 302.78
246.22 135.56 229.24
149.17 142.76 155.39
187.8 214.46 136.21
166.11 106.35 244.76
211.95 167.82 145.74
139.83 240.69 179.95
217.05 244.26 166.98
182.24 215.62 215.47
286.29 142.7 152.68
111.73 106.7 276.97
302.61 263.25 146
133.13 231.79 317.01
146.31 194.9 242.54
107.93 303.56 192.27
270.21 299.55 134.48
137.65 158.45 297.64
229.98 146.95 201.26
315.39 159.56 282.89
181.1 134 129.03
225.79 256.21 121.63
224.77 170.26 177.17
269.97 271.52 162.19
160.74 235.98 240.25
306.29 207.36 304.81
242.19 106.17 305.13
284.48 185.69 107.69
231.39 123.27 223.85
312.83 128.27 107.18
166.24 271.29 220.71
123.46 283.68 245.85
140.6 222.04 170.14
99.32 107.39 293.06
108.85 316.71 146.76
105.39 240.51 111.15
153.75 152.49 191.21
194.14 106.55 146.6
205.33 299.65 145.6
192.16 99.282 94.191
220.05 179.91 288.22
121.58 151.62 287.6
297.75 247.79 276.58
212.29 122.48 105.98
301.98 129.97 216.75
300.66 170.27 186.01
115.08 292.01 279.58
311.47 226.67 304.88
220.12 181.31 108.99
237.99 159.01 117
132.63 223.59 190.91
117.55 113.57 256.75
170.56 240.31 186.82
297.05 300.76 279.9
201.77 142.7 138.15
196.39 161.49 171.12
191.18 306.49 185.69
273.85 164.56 123.05
219.23 119.12 312.43
304.32 155.97 172.52
297.66 305.86 174.13
169.25 278.45 261.9
176.01 292.07 293.76
109.45 300.71 217.41
125.89 102.75 219.61
140.48 93.282 254.78
293.36 104.97 126.85
315.19 295.62 145.95
164.38 208.34 181.58
101.38 251.81 253.68
252.79 136.45 283.95
197.71 141.04 266.45
304.96 266.26 234.49
94.947 270.5 256.75
238.71 142.65 149.41
285.56 310.92 189.23
144.56 157.99 231.63
155.29 289.21 304.76
122.1 250.09 131.5
229.95 265.6 292.69
267.13 130.21 231.01
183.28 180.13 226.32
100.24 188.03 242.69
124.94 167.09 242.55
145.52 181.75 280.71
126.82 164.12 202.86
251.94 206.65 303.9
272.05 303.48 234.56
263.61 269.75 126.21
156.87 205.31 114.39
116.81 291.23 299.49
310.82 204.8 158.85
187.41 208.8 170.61
279.43 181.4 289.78
153.64 194.22 223.63
155.6 129.84 205.44
257.72 103.78 208.81
215.43 194.87 192.77
196.08 140.42 163.76
170.58 296.53 270.33
290.14 200.58 195.98
212.92 96.886 290.87
200.15 126.11 150.4
286.95 275.65 198.06
256.88 93.149 225.73
271.44 93.386 167.07
203.87 109.14 168.36
194.35 133.73 197.1
283.16 256.4 202.51
131.41 301.7 191.29
293.7 112.74 177.52
190.27 305.36 117.48
221.47 291.39 225.58
239.1 114.73 207.49
193.6 289.71 240.37
134.9 133.83 112.17
240.95 298.98 302.18
318.19 152.89 312.81
208.04 182.94 133.14
130.57 200.88 256.25
211.9 112.67 139.75
277.94 280 253.74
157.58 100.11 154.42
192.23 134.17 248.48
228.57 197.93 264.48
265.93 209.58 267.01
230.18 159.84 143.78
247.13 150.24 180.7
211.21 178.88 317.28
149.92 304.16 95.336
247.42 254.41 197.97
96.864 207.61 240.41
111.67 124.78 285.52
245.49 117.25 174.38
209.33 254.35 213.91
169.56 144.01 203.34
167.32 274.32 108.15
234.25 131.37 165.76
302.92 215.35 266.22
223.63 95.9 192.24
224.64 251.17 305.48
269.82 189.63 274.29
189.48 125.65 290.32
155.65 224.7 266.11
236.59 163.22 191.68
247.8 160.13 153.24
125.66 170.31 102.89
109.16 128.46 221.35
140.59 305.41 298.91
195.1 198.34 292.52
306.78 171.08 296.79
163.17 245.38 204.71
168.84 299.51 317.58
178.05 172.94 134.56
92.813 143.53 190.28
114.52 258.3 111.34
303.8 131.27 296.52
284.14 243.53 259.38
126.59 225.59 278.55
308.99 93.765 132.32
200.27 281.06 197.96
194.6 231.1 270.65
190.8 247.75 104.37
129.02 268.18 101.74
298.07 112.74 238.72
211.64 170.92 254.8
252.87 235.17 198.15
293.44 294.26 245.24
171.23 198.11 293.57
253.8 310 291.53
199.13 168.35 202.68
153.6 165.05 93.55
250.44 184.97 106.54
168.4 93.06 125.26
164.13 179.38 204.24
177.25 255.63 214.53
294.23 106.19 196.41
313.55 238.63 208.17
204.44 257.59 93.547
173.46 228.09 140.09
141.4 104.36 184.55
304.9 228.82 286.12
119.82 203.9 289.19
111.8 236.5 245.57
244.73 112.05 105.71
150.35 214.94 194.22
119.89 274.9 137.57
108.97 117.08 117.88
128.43 206.28 223.76
244.07 173.27 138.63
237.01 210.74 201.06
315.62 99.998 317.45
154.06 144.67 127.81
114.11 267.15 252.12
144.66 153.03 251.01
288.98 253.15 183.65
259.81 252.51 94.86
240 243.46 236.32
301.99 136.06 127.99
119.72 296.81 119.09
136.3 250.6 162.93
157.17 94.131 270.27
128.69 93.203 168.41
291.25 172.64 245.73
106.15 203.18 171.09
118.11 127.46 142.09
308.98 161.63 128.05
279.87 182.96 174.54
303.02 116.72 94.129
254.94 286.99 131.49
247.06 230.58 121.53
313.84 275.9 179.77
192.46 198.06 224.71
93.835 160.27 269.76
257.66 269.93 224.2
264.73 109.51 260.58
188.3 296.89 135.49
112.66 317.02 206.28
118.54 166.25 130.69
212.04 267.42 228.81
103.34 280.54 224.62
100.95 124.95 302.48
179.78 190.6 209.64
111.36 195.5 257.54
197.53 248.68 168.09
285.89 227.81 147.8
196.1 295.42 101.05
279.29 140.54 311.79
99.734 189.75 125.7
135.2 260.19 224.39
197.62 97.674 225.6
254.48 309.17 242.23
135.81 238.95 266.86
294.58 121.79 116.1
222.66 156.32 284.24
116.92 183.14 315.68
208.51 282.33 136.12
194.3 203.44 204.71
97.821 144.78 223.61
138.85 267.02 205.95
230.03 267.15 316.23
249.33 283 189.36
237.7 229.49 103.89
293.75 285.73 120.8
124.03 233.23 170.21
122.16 192.85 177.15
264.9 178.55 199.79
237 208.69 96.499
276 155.29 105.32
134.11 153.03 147.17
211.84 212.5 201.5
144.8 293.72 237.56
209 262.98 160.11
184.7 276.83 226.07
169.92 146.19 115.72
290.39 229.67 272.38
201.42 226.96 128.58
214.37 166.05 301.48
117.37 180.81 279.67
201.82 145.57 303.8
143.33 138.25 237.6
301.31 195.47 267.74
256.23 154.67 274.32
178.55 243.49 269.33
278.49 216.18 281.1
213.08 115.36 225.3
303.22 139.76 314.61
122.25 140.22 156.93
196.65 136.22 114.52
193.55 264.74 207.37
230.75 173.51 158.36
307.38 171.4 102.43
246.48 130.94 112.03
92.917 246.53 236.35
214.24 276.42 286.67
316.93 221.96 172.5
138.36 302.22 254.48
95.321 233.06 216.65
257.69 125.45 127.66
224.53 101.79 234.53
213.55 285.48 105.32
276.8 200.22 229.7
131.92 167.1 280.27
176.37 113.21 298.87
101.26 142.01 244.19
104.86 168.05 216.53
144.74 140.38 178.1
158.5 193.49 308.29
180.76 230.81 100.88
124.97 241.66 194.75
206.68 247.93 116.52
175.42 126.28 196.17
180.37 163.21 116.81
273.96 297.43 263.65
162.22 199.59 206.38
232.76 212.2 305
238.59 234.06 278.03
147.22 223 151.05
179.05 271.62 149.26
101.38 314.1 128.39
291.08 124.45 310.36
93.067 157.67 296.57
134.82 156.52 186.18
202.8 245.49 135.98
131.24 314.58 121.56
259.2 300.27 191.42
248.54 153.9 292.77
113.49 93.3 292.35
107.26 242.7 164.81
172.29 119.85 177.5
121.99 139.99 303.86
161.72 140.3 246.03
188.61 106.12 209.87
260.47 110.93 311.7
186.15 220.71 117.28
153.8 261.03 241.38
107.57 163.5 97.758
99.725 296.48 119.07
109.88 306.35 310.6
202.44 175.19 280
206.83 106.63 270.04
309.43 173.11 203.76
126.29 181.61 193.18
179.66 235.98 167
157.97 300.86 250.81
146.99 130.1 139.54
121.31 230.34 117.71
304.68 217.26 195.65
93.649 200.51 96.69
187.83 269.59 314.72
195.63 214.33 187.99
135.79 117.03 249.29
104.79 149.58 154.21
279.47 130.77 254.43
278.55 262.45 146.17
241.49 211.86 287.01
178.79 273.49 183.24
288.7 107.13 146.18
244.03 134.11 207.37
219.36 103.47 123.64
231.46 293.18 100.84
205.67 103.87 109.06
290.4 175.52 159.06
137.13 202.45 119.99
201.75 276.77 302.29
288.25 258.39 226.83
314.05 243.95 175.74
177.41 231.31 305.88
299.18 132.67 237.5
245.61 118.42 240.78
134.33 142.44 130.21
131.68 174.26 167.05
165.23 175.72 314.51
137.53 282.71 281.45
151.73 268.77 304.76
310.13 259.94 310.3
107.44 217.37 111.45
239.49 278.33 255.96
190.25 238.61 183.76
201.99 215.59 218.63
193.06 96.364 259.8
188.7 122.01 166.28
204.87 125.41 276.65
205.66 135.86 220.36
199.95 101.65 128.1
163.64 159.21 252.23
292.84 105.89 258.28
236.47 293.08 136.12
268.67 223.18 138.74
137.17 126.8 156.65
306.15 94.647 268.29
315.33 107.57 280.48
249.54 200.41 164.95
263.1 127.38 269.42
143.15 161.79 131.42
317.78 264.3 122.96
117.91 280.5 156.97
128.83 189.64 106.96
259.65 161.48 214.37
175.12 149.25 272.34
106.71 257.67 289.31
[...]
POINT_DATA 1638
SCALARS radius double 1
LOOKUP_TABLE default
10
10
10
10
10
10
10
10
10
10
10
10
10
10
10
10
10
10
10
10
10
10
10
10
10
10
10
10
10
10
10
10
10
10
10
10
10
10
10
10
10
10
10
10
10
10
10
10
10
10
10
10
10
10
10
10
10
10
10
10
10
10
10
10
10
10
10
10
10
10
10
10
10
10
10
10
10
10
10
10
10
10
10
10
10
10
10
10
10
10
10
10
10
10
10
10
10
10
10
10
10
10
10
10
10
10
10
10
10
10
10
10
10
10
10
10
10
10
10
10
10
10
10
10
10
10
10
10
10
10
10
10
10
10
10
10
10
10
10
10
10
10
10
10
10
10
10
10
10
10
10
10
10
10
10
10
10
10
10
10
10
10
10
10
10
10
10
10
10
10
10
10
10
10
10
10
10
10
10
10
10
10
10
10
10
10
10
10
10
10
10
10
10
10
10
10
10
10
10
10
10
10
10
10
10
10
10
10
10
10
10
10
10
10
10
10
10
10
10
10
10
10
10
10
10
10
10
10
10
10
10
10
10
10
10
10
10
10
10
10
10
10
10
10
10
10
10
10
10
10
10
10
10
10
10
10
10
10
10
10
10
10
10
10
10
10
10
10
10
10
10
10
10
10
10
10
10
10
10
10
10
10
10
10
10
10
10
10
10
10
10
10
10
10
10
10
10
10
10
10
10
10
10
10
10
10
10
10
10
10
10
10
10
10
10
10
10
10
10
10
10
10
10
10
10
10
10
10
10
10
10
10
10
10
10
10
10
10
10
10
10
10
10
10
10
10
10
10
10
10
10
10
10
10
10
10
10
10
10
10
10
10
10
10
10
10
10
10
10
10
10
10
10
10
10
10
10
10
10
10
10
10
10
10
10
10
10
10
10
10
10
10
10
10
10
10
10
10
10
10
10
10
10
10
10
10
10
10
10
10
10
10
10
10
10
10
10
10
10
10
10
10
10
10
10
10
10
10
10
10
10
10
10
10
10
10
10
10
10
10
10
10
10
10
10
10
10
10
10
10
10
10
10
10
10
10
10
10
10
10
10
10
10
10
10
10
10
10
10
10
10
10
10
10
10
10
10
10
10
10
10
10
10
10
10
10
10
10
10
10
10
10
10
10
10
10
10
10
10
10
10
10
10
10
10
10
10
10
10
10
10
10
10
10
10
10
10
10
10
10
10
10
10
10
10
10
10
10
10
10
10
10
10
10
10
10
10
10
10
10
10
10
10
10
10
10
10
10
10
10
10
10
10
10
10
10
10
10
10
10
10
10
10
10
10
10
10
10
10
10
10
10
10
10
10
10
10
10
10
10
10
10
10
10
10
10
10
10
10
10
10
10
10
10
10
10
10
10
10
10
10
10
10
10
10
10
10
10
10
10
10
10
10
10
10
10
10
10
10
10
10
10
10
10
10
10
10
10
10
10
10
10
10
10
10
10
10
10
10
10
10
10
10
10
10
10
10
10
10
10
10
10
10
10
10
10
10
10
10
10
10
10
10
10
10
10
10
10
10
10
10
10
10
10
10
10
10
10
10
10
10
10
10
10
10
10
10
10
10
10
10
10
10
10
10
10
10
10
10
10
10
10
10
10
10
10
10
10
10
10
10
10
10
10
10
10
10
10
10
10
10
10
10
10
10
10
10
10
10
10
10
10
10
10
10
10
10
10
10
10
10
10
10
10
10
10
10
10
10
10
10
10
10
10
10
10
10
10
10
10
10
10
10
10
10
10
10
10
10
10
10
10
10
10
10
10
10
10
10
10
10
10
10
10
10
10
10
10
10
10
10
10
10
10
10
10
10
10
10
10
10
10
10
10
10
10
10
10
10
10
10
10
10
10
10
10
10
10
10
10
10
10
10
10
10
10
10
10
10
10
10
10
10
10
10
10
10
10
10
10
10
10
10
10
10
10
10
10
10
10
10
10
10
10
10
10
10
10
10
10
10
10
10
10
10
10
10
10
10
10
10
10
10
10
10
10
10
10
10
10
10
10
10
10
10
10
10
10
10
10
10
10
10
10
10
10
10
10
10
10
10
10
10
10
10
10
10
10
10
10
10
10
10
10
10
10
10
10
10
10
10
10
10
10
10
10
10
10
10
10
10
10
10
10
10
10
10
10
10
10
10
10
10
10
10
10
10
10
10
10
10
10
10
10
10
10
10
10
10
10
10
10
10
10
10
10
10
10
10
10
10
10
10
10
10
10
10
10
10
10
10
10
10
10
10
10
10
10
10
10
10
10
10
10
10
10
10
10
10
10
10
10
10
10
10
10
10
10
10
10
10
10
10
10
10
10
10
10
10
10
10
10
10
10
10
10
10
10
10
10
10
10
10
10
10
10
10
10
10
10
10
10
10
10
10
10
10
10
10
10
10
10
10
10
10
10
10
10
10
10
10
10
10
10
10
10
10
10
10
10
10
10
10
10
10
10
10
10
10
10
10
10
10
10
10
10
10
10
10
10
10
10
10
10
10
10
10
10
10
10
10
10
10
10
10
10
10
10
10
10
10
10
10
10
10
10
10
10
10
10
10
10
10
10
10
10
10
10
10
10
10
10
10
10
10
10
10
10
10
10
10
10
10
10
10
10
10
10
10
10
10
10
10
10
10
10
10
10
10
10
10
10
10
10
10
10
10
10
10
10
10
10
10
10
10
10
10
10
10
10
10
10
10
10
10
10
10
10
10
10
10
10
10
10
10
10
10
10
10
10
10
10
10
10
10
10
10
10
10
10
10
10
10
10
10
10
10
10
10
10
10
10
10
10
10
10
10
10
10
10
10
10
10
10
10
10
10
10
10
10
10
10
10
10
10
10
10
10
10
10
10
10
10
10
10
10
10
10
10
10
10
10
10
10
10
10
10
10
10
10
10
10
10
10
10
10
10
10
10
10
10
10
10
10
10
10
10
10
10
10
10
10
10
10
10
10
10
10
10
10
10
10
10
10
10
10
10
10
10
10
10
10
10
10
10
10
10
10
10
10
10
10
10
10
10
10
10
10
10
10
10
10
10
10
10
10
10
10
10
10
10
10
10
10
10
10
10
10
10
10
10
10
10
10
10
10
10
10
10
10
10
10
10
10
10
10
10
10
10
10
10
10
10
10
10
10
10
10
10
10
10
10
10
10
10
10
10
10
10
10
10
10
10
10
10
10
10
10
10
10
10
10
10
10
10
10
10
10
10
10
10
10
10
10
10
10
10
10
10
10
10
10
10
10
10
10
10
10
10
10
10
10
10
10
10
10
10
10
10
10
10
10
10
10
10
10
10
10
10
10
10
10
10
10
10
10
10
10
10
10
10
10
10
10
10
10
10
10
10
10
10
10
10
10
10
10
10
10
10
10
10
10
10
10
10
10
10
10
10
10
10
10
10
10
10
10
10
10
10
10
10
10
10
10
10
10
10
10
10
10
10
10
10
10
10
10
10
10
10
10
10
10
10
10
10
10
10
10
10
10
10
10
10
10
10
10
10
10
10
10
10
10
10
10
10
10
10
10
10
10
10
10
10
10
10
10
10
10
10
10
10
10
10
10
10
10
10
10
10
10
10
10
10
10
10
10
10
10
10
10
10
10
10
10
10
10
10
10
10
10
10
10
10
10
10
10
10
10
10
10
10
10
10
10
10
10
10
10
10
10
10
10
10
10
10
10
10
10
10
10
10
10
10
10
10
10
10
10
10
10
10
10
10
10
10
10
10
10
SCALARS x_coordinate double 1
LOOKUP_TABLE default
148.16
178
271.82
212.12
215.62
302.08
283.89
217.73
136.1
273.1
179.34
313.04
117.83
134.15
168.83
155
284.21
270.01
129.76
293.73
97.271
120.85
245.1
268.79
177.36
144.04
242.69
124.52
100.26
162.95
243.51
282.45
119.11
251.72
205.04
148.1
306.87
154.58
100.08
234.31
229.77
316.73
192.68
249.98
204.88
160.55
202.73
136.86
163.89
134.86
248.93
172.47
170.52
233.28
134.72
235.18
214.74
123.43
127.45
242.4
200.11
111.63
183.01
215.04
220.54
229.97
124.84
154.66
162.2
310.12
263.22
173.11
177.51
285.06
181.55
248.75
172.47
252.25
97.664
114.25
233.85
277.91
165.43
159.8
257.85
313
234.98
124.74
276.39
196.54
213.74
195.25
202.1
109.47
162.81
138.6
226.56
145.7
237.4
162.76
231.94
215.45
176.33
246.22
149.17
187.8
166.11
211.95
139.83
217.05
182.24
286.29
111.73
302.61
133.13
146.31
107.93
270.21
137.65
229.98
315.39
181.1
225.79
224.77
269.97
160.74
306.29
242.19
284.48
231.39
312.83
166.24
123.46
140.6
99.32
108.85
105.39
153.75
194.14
205.33
192.16
220.05
121.58
297.75
212.29
301.98
300.66
115.08
311.47
220.12
237.99
132.63
117.55
170.56
297.05
201.77
196.39
191.18
273.85
219.23
304.32
297.66
169.25
176.01
109.45
125.89
140.48
293.36
315.19
164.38
101.38
252.79
197.71
304.96
94.947
238.71
285.56
144.56
155.29
122.1
229.95
267.13
183.28
100.24
124.94
145.52
126.82
251.94
272.05
263.61
156.87
116.81
310.82
187.41
279.43
153.64
155.6
257.72
215.43
196.08
170.58
290.14
212.92
200.15
286.95
256.88
271.44
203.87
194.35
283.16
131.41
293.7
190.27
221.47
239.1
193.6
134.9
240.95
318.19
208.04
130.57
211.9
277.94
157.58
192.23
228.57
265.93
230.18
247.13
211.21
149.92
247.42
96.864
111.67
245.49
209.33
169.56
167.32
234.25
302.92
223.63
224.64
269.82
189.48
155.65
236.59
247.8
125.66
109.16
140.59
195.1
306.78
163.17
168.84
178.05
92.813
114.52
303.8
284.14
126.59
308.99
200.27
194.6
190.8
129.02
298.07
211.64
252.87
293.44
171.23
253.8
199.13
153.6
250.44
168.4
164.13
177.25
294.23
313.55
204.44
173.46
141.4
304.9
119.82
111.8
244.73
150.35
119.89
108.97
128.43
244.07
237.01
315.62
154.06
114.11
144.66
288.98
259.81
240
301.99
119.72
136.3
157.17
128.69
291.25
106.15
118.11
308.98
279.87
303.02
254.94
247.06
313.84
192.46
93.835
257.66
264.73
188.3
112.66
118.54
212.04
103.34
100.95
179.78
111.36
197.53
285.89
196.1
279.29
99.734
135.2
197.62
254.48
135.81
294.58
222.66
116.92
208.51
194.3
97.821
138.85
230.03
249.33
237.7
293.75
124.03
122.16
264.9
237
276
134.11
211.84
144.8
209
184.7
169.92
290.39
201.42
214.37
117.37
201.82
143.33
301.31
256.23
178.55
278.49
213.08
303.22
122.25
196.65
193.55
230.75
307.38
246.48
92.917
214.24
316.93
138.36
95.321
257.69
224.53
213.55
276.8
131.92
176.37
101.26
104.86
144.74
158.5
180.76
124.97
206.68
175.42
180.37
273.96
162.22
232.76
238.59
147.22
179.05
101.38
291.08
93.067
134.82
202.8
131.24
259.2
248.54
113.49
107.26
172.29
121.99
161.72
188.61
260.47
186.15
153.8
107.57
99.725
109.88
202.44
206.83
309.43
126.29
179.66
157.97
146.99
121.31
304.68
93.649
187.83
195.63
135.79
104.79
279.47
278.55
241.49
178.79
288.7
244.03
219.36
231.46
205.67
290.4
137.13
201.75
288.25
314.05
177.41
299.18
245.61
134.33
131.68
165.23
137.53
151.73
310.13
107.44
239.49
190.25
201.99
193.06
188.7
204.87
205.66
199.95
163.64
292.84
236.47
268.67
137.17
306.15
315.33
249.54
263.1
143.15
317.78
117.91
128.83
259.65
175.12
106.71
97.688
238.32
267.98
164.15
142.48
113.4
142.81
296.75
176.73
210
251.31
252.03
173.29
285.72
224.84
225.06
153.51
204.11
199.59
177.23
122.37
268.29
283.17
160.82
290.8
309.92
303.93
151.83
228.52
274.25
284.01
267.38
179.27
151.5
259.44
205.89
187.43
316.41
169.77
291.16
299.68
284.02
264.69
124.57
176.85
115.71
197.06
275.98
252.66
93.827
238.29
282.35
188.02
210.16
242.24
102.81
278.34
204.31
120.31
124.44
313.53
162.56
289.23
185.52
244.29
190.39
129.72
265.29
134.89
285.98
117.26
185
130.26
97.528
215.27
154.7
291.91
303.69
293.69
128.08
237.4
183.72
307.33
281.96
109.86
217.26
251.53
221.63
224.56
105.3
275.62
120.9
158.66
302.21
265.2
190.94
169.59
238.43
143.68
109.98
280.42
108.47
220.17
157.85
265.24
283.46
294.03
270.65
110.27
261.46
265.53
274.26
160.45
128
101.89
268.4
207.25
96.313
153.56
175.84
249.09
241.08
184.19
204.2
166.22
159.7
189.67
288.54
187.39
296.05
128.95
146.56
143.66
260.09
129.7
105.84
210.2
240.18
153.1
178.21
97.565
304.37
155.38
233.23
235.45
123.65
186.24
104.01
149.02
236.71
273.44
303.82
205.41
202.19
211.21
226.02
270.93
143.74
314.03
108.05
251.96
316.01
178.53
171.42
116.9
178.74
120.45
142.36
257.69
182.08
257.01
313.04
169.52
128.69
314.28
183.27
143.93
309.67
243.07
249.71
236
280.33
116.8
291.83
230.34
251.8
212.68
183.12
315.48
141.42
223.79
245.92
97.719
303.34
291.36
180.21
123.76
264.59
131.08
201.9
231.4
292.25
292.5
306.91
195.82
103.59
233.57
257.8
120.02
275.12
221.5
142.71
137.73
124.85
265.25
256.01
144.67
113.14
309.18
149.17
180.36
160.32
292.16
180.03
174.04
251.39
237.31
104.67
269.33
271.56
182.46
286.05
310.16
103.42
225.13
254.05
246.13
259.33
174.15
235.27
160.97
152.38
149.37
254.03
194.15
205.66
154.99
124.95
226.13
234.08
236.33
210.78
290.52
116.35
266.9
166.1
99.721
262.8
262.18
96.032
150.29
224.79
231.75
168.7
191.24
240.87
296.61
162.7
253.82
192.23
305.01
184.24
303.69
297.75
158.05
162.89
154.59
229.19
315.5
129.5
201.14
201.04
166.97
227.27
284.74
222.11
255.28
101.61
309.34
182.58
142.75
94.53
119.41
102.94
93.215
156.63
306.4
173.99
99.215
115.53
307.95
255.56
312.78
146.08
194.65
187.67
279.73
250.15
317.84
254.82
233.91
267.88
159.95
197.67
202.61
217.67
158.24
124.86
103.07
201.9
138.47
104.41
301.15
207.23
258.9
301.56
171.49
132.42
251.32
167.31
270.23
271.17
289.12
263.84
185.4
303.97
268.78
307.15
305.05
233.35
275.25
241.14
260.69
143.49
188.64
299.88
300.62
265.92
164.53
145.03
293.03
189.55
221.3
147.11
281.04
179.42
265.86
252.5
98.58
178.51
276.57
186.67
282.32
146.35
113.23
317.1
207.99
199.26
268.05
310.65
248.3
260.74
194.47
119.03
197.16
211.92
92.963
249.58
139.97
178.75
139.31
296.2
185.72
218.17
178.27
165.5
290.63
175.08
285.85
146.57
295.13
131.23
230.65
317.2
300.67
307.64
317.65
300.6
257.22
166.37
127.02
205.28
285.5
137.95
147.74
165.45
164.88
221.17
98.575
305.15
154.14
234
185.2
193.66
294.76
108.87
237.49
184.26
123.69
270.72
251.11
242.27
277.32
229.5
305.24
214.75
212.95
277.31
203.06
250.2
101.39
189.87
309.27
154.16
125.85
218.45
136.1
294.78
219.53
191.93
164.18
238.18
242.52
192.26
310.97
260.71
95.224
282.26
167.68
263.59
182.33
137.83
223.51
223.29
114.33
280.59
131.38
308.55
208.5
296.82
204.49
253.03
315.75
115.13
218.2
272.9
134.56
161.87
208.97
149.49
240.62
125.76
120.57
114.06
205.11
130.92
230.42
201.94
114.36
166.23
191.63
278.17
265.63
99.141
233
239.34
111.51
294.14
262.17
96.535
289.37
153.18
127.52
135.33
137.5
210.91
106.29
146.45
224.26
308.63
102.08
251.67
256.95
305
262.8
160.28
240.14
99.358
107.83
214.38
144.46
302.64
283.84
285.93
286.68
271.94
215.63
292.52
115
259.76
180.46
227.66
122.18
271.25
318.14
215.3
161.71
273.69
276.43
170.42
216.51
295.38
278.02
220.52
285.55
264.46
282.33
136.73
150.89
135.36
145.33
135
266.96
219.9
294.96
218.79
317.49
174.05
311.62
223.82
149.71
208.16
248.87
307.5
286.23
274.1
149.51
190.09
215.15
239.7
166
126.43
235.59
212.61
286.63
109.26
154.7
132.56
115.22
258
278.81
219.3
197.31
95.494
119.9
277.21
168.77
172.38
273.01
289.51
258.27
110.05
108.5
218.24
200.89
254.68
172.94
144.39
231.91
262.26
226.61
160.5
165.87
160.82
247.7
173.04
237.44
293.63
205.58
165.24
312.23
298.96
274.39
291.53
161.12
255.39
122.58
258.13
204.54
139.16
101.89
111.77
237.29
284.9
248.96
129.69
108.05
260.91
265.43
111.19
113.52
135.94
252.44
239.81
162.68
266.17
242.25
156.68
279.12
240.82
146.24
148.15
180.23
299.01
235.29
303.08
285.46
156.9
247.13
105.74
299.82
229.94
228.66
214.46
105.12
157.74
201.32
136.7
103.07
237
192.62
276.76
237.78
223.77
192.82
240.97
232.93
307.21
125.77
223.8
266.57
288.14
249.42
174.4
145.18
261.07
181
99.996
220.82
241.76
167.03
219.36
103.65
172.28
269.23
297.6
299.18
192.38
184.79
169.85
108.83
253.28
318.07
100.39
208.88
113.8
290.17
222.45
189.46
220.95
219.74
235.36
298.16
236.36
265.05
308.48
108.62
231.95
251.55
175.02
248.96
195.83
312.05
137.81
108.97
289.52
120.06
232.08
164.88
146.51
215.02
148.93
280.81
271.15
95.57
163.43
195.57
263.42
120.24
264.46
234.22
291.13
234.18
306.82
163.55
198.01
256.78
260.13
201.25
260.81
266.86
118.97
240.58
129.65
154.91
241.91
128.4
230.91
153.18
140.79
233.4
292.25
311.29
172.66
220.51
311.83
192.89
176.24
273.57
131.01
114.9
157.77
212.12
306.94
183.57
256.56
272.41
194.89
113.56
241.91
175.32
203.95
207.67
222.68
150.9
200.96
222.01
93.879
206.02
241.65
208.94
112.36
144.4
309.1
201.69
223.8
317.28
272.22
172.28
99.257
225.76
270.35
221.83
186.12
252.35
177.89
248.87
139.11
162.89
263.2
171.22
306.78
227.35
240.9
107.99
142.62
311.15
216.96
212.55
279.8
106.24
98.33
290.5
149.02
114.53
172.74
286.84
223.73
171.49
100.53
185.17
132.34
290.19
303.53
193.03
303.42
219.08
97.955
303.86
180.69
288.23
195.21
315.22
98.556
230.56
136.76
139.7
153.37
140.41
264.96
101
290.52
267.16
217
312.06
143.17
158.41
243.09
280.37
303.93
288.77
162.27
133.27
197.66
185.89
93.963
139.27
260.15
309.5
143.52
179.64
212.31
149.15
257.31
242.16
146.92
316.75
154.3
209.4
234.15
211.29
198.91
94.495
174.25
275.52
243.43
259.59
193.91
184.72
113.48
128.75
316.41
206.72
246.62
118.73
294.6
143.01
180.02
261.8
165.54
218.2
256.69
294.5
124.62
302.83
118.61
285.9
124.89
202.25
302.22
207.48
246.58
225.09
209.47
223.92
161.36
306.05
100.98
147.4
254.79
220.58
186.69
181.52
228.25
270.21
119.91
221.87
275.78
281.27
272.73
162.37
118.9
304.19
210.8
297.96
176.29
123.32
307.4
158.76
145.76
276.65
288.25
263.42
273.42
220.27
121.85
228.19
184.82
185.81
157.9
140.96
297.34
311.98
286.93
255.91
250.86
301.72
128
238.24
208.39
193.99
159.96
265.9
138.51
247.28
133.78
129.86
313.14
104.06
308.61
278.52
195.72
304.4
131.97
120.86
236.52
174.07
276.03
131.54
155.16
249.57
196.38
157.36
121.02
231.73
272.44
96.115
196.66
206.83
150.03
217.94
278.49
177.86
161.4
95.797
134.58
267.2
105.23
137.19
169.59
158.52
189.91
278.3
258.36
286.12
248.29
284.52
139.93
148.28
107.81
274.58
285.6
114.99
221.02
167.32
97.851
270.73
300.26
103.09
168.3
273.56
208.84
187.5
110.83
183.3
276.6
200.94
253.58
206.43
279.55
233.9
263.86
176.54
264.78
236.25
142.64
171.76
220.94
232.56
160.04
296.94
228.58
148.05
196.99
252.61
219.85
291.8
256.51
250.9
151.49
306.38
259.24
310.59
198.59
95.572
260.5
256.27
312.89
103.51
153.99
120.53
244.96
159.54
116.26
103.54
169.19
290.8
218.68
231.4
302.88
180.25
101
160.18
164.49
104.04
216.83
315.82
241.76
105.31
300.15
116.82
244.75
114.93
109.36
174.79
277.45
193.79
310.96
147.54
307.23
282.66
158.56
271.71
315.15
286.07
189.53
128.25
131.17
209.22
160.24
293.68
113.77
132.3
127.73
192.31
99.261
175.72
273.31
96.469
294.92
183.48
130.05
128.69
272.38
225
275.13
149.06
182.74
157.58
220.69
108.33
310.77
235.12
252.44
243.04
282.68
158.73
110.23
202.87
313.69
285.44
247.04
290.46
156.42
178.43
153.74
207.13
141.07
204.54
303.51
285.28
185.2
270.77
278.85
101.26
162.93
199.28
227.3
99.428
117.8
110.89
142.74
292.07
194.86
196.08
145.07
94.781
296.76
158.27
151.61
183.29
120.01
223.76
231.03
118.58
254.32
219.93
299.51
168.75
275.51
210.67
93.874
284.93
147.26
183.8
139
SCALARS y_coordinate double 1
LOOKUP_TABLE default
183.68
260.78
205.77
114.93
152.76
149.71
178.16
201.1
107.23
272.12
111.8
144.2
276.95
150.57
168.25
288.02
286.23
113.65
156.83
154.9
227.02
142.85
297.53
217.52
185.29
245.14
220.48
243.25
181.96
195.54
167.48
236.24
300.42
133.17
249.47
175.41
250.18
308.01
97.804
312.81
195.64
147.97
147.71
268.36
175.28
178.84
180.29
182.14
317.92
187.34
199.8
257.71
283.29
305.87
309.92
288.16
180.12
307.66
268.41
237.95
196.53
299.37
290.65
259.57
309.57
263.75
192.92
228.4
289.66
118.23
93.393
154.06
163.17
258.63
168.61
187.43
181.5
93.629
211.57
217.89
140.44
153.33
171.85
150.94
208.46
283.76
185.87
126.97
263.54
298.31
230.89
296.09
190.89
100.14
112.98
131.7
139.3
140.13
170.45
261.15
239.64
103.53
134.12
135.56
142.76
214.46
106.35
167.82
240.69
244.26
215.62
142.7
106.7
263.25
231.79
194.9
303.56
299.55
158.45
146.95
159.56
134
256.21
170.26
271.52
235.98
207.36
106.17
185.69
123.27
128.27
271.29
283.68
222.04
107.39
316.71
240.51
152.49
106.55
299.65
99.282
179.91
151.62
247.79
122.48
129.97
170.27
292.01
226.67
181.31
159.01
223.59
113.57
240.31
300.76
142.7
161.49
306.49
164.56
119.12
155.97
305.86
278.45
292.07
300.71
102.75
93.282
104.97
295.62
208.34
251.81
136.45
141.04
266.26
270.5
142.65
310.92
157.99
289.21
250.09
265.6
130.21
180.13
188.03
167.09
181.75
164.12
206.65
303.48
269.75
205.31
291.23
204.8
208.8
181.4
194.22
129.84
103.78
194.87
140.42
296.53
200.58
96.886
126.11
275.65
93.149
93.386
109.14
133.73
256.4
301.7
112.74
305.36
291.39
114.73
289.71
133.83
298.98
152.89
182.94
200.88
112.67
280
100.11
134.17
197.93
209.58
159.84
150.24
178.88
304.16
254.41
207.61
124.78
117.25
254.35
144.01
274.32
131.37
215.35
95.9
251.17
189.63
125.65
224.7
163.22
160.13
170.31
128.46
305.41
198.34
171.08
245.38
299.51
172.94
143.53
258.3
131.27
243.53
225.59
93.765
281.06
231.1
247.75
268.18
112.74
170.92
235.17
294.26
198.11
310
168.35
165.05
184.97
93.06
179.38
255.63
106.19
238.63
257.59
228.09
104.36
228.82
203.9
236.5
112.05
214.94
274.9
117.08
206.28
173.27
210.74
99.998
144.67
267.15
153.03
253.15
252.51
243.46
136.06
296.81
250.6
94.131
93.203
172.64
203.18
127.46
161.63
182.96
116.72
286.99
230.58
275.9
198.06
160.27
269.93
109.51
296.89
317.02
166.25
267.42
280.54
124.95
190.6
195.5
248.68
227.81
295.42
140.54
189.75
260.19
97.674
309.17
238.95
121.79
156.32
183.14
282.33
203.44
144.78
267.02
267.15
283
229.49
285.73
233.23
192.85
178.55
208.69
155.29
153.03
212.5
293.72
262.98
276.83
146.19
229.67
226.96
166.05
180.81
145.57
138.25
195.47
154.67
243.49
216.18
115.36
139.76
140.22
136.22
264.74
173.51
171.4
130.94
246.53
276.42
221.96
302.22
233.06
125.45
101.79
285.48
200.22
167.1
113.21
142.01
168.05
140.38
193.49
230.81
241.66
247.93
126.28
163.21
297.43
199.59
212.2
234.06
223
271.62
314.1
124.45
157.67
156.52
245.49
314.58
300.27
153.9
93.3
242.7
119.85
139.99
140.3
106.12
110.93
220.71
261.03
163.5
296.48
306.35
175.19
106.63
173.11
181.61
235.98
300.86
130.1
230.34
217.26
200.51
269.59
214.33
117.03
149.58
130.77
262.45
211.86
273.49
107.13
134.11
103.47
293.18
103.87
175.52
202.45
276.77
258.39
243.95
231.31
132.67
118.42
142.44
174.26
175.72
282.71
268.77
259.94
217.37
278.33
238.61
215.59
96.364
122.01
125.41
135.86
101.65
159.21
105.89
293.08
223.18
126.8
94.647
107.57
200.41
127.38
161.79
264.3
280.5
189.64
161.48
149.25
257.67
213.13
170.71
239.82
276.28
202.85
238.55
134.03
147.02
162.01
263.4
302.89
227.6
222.89
161.26
142.04
227.18
314.37
153.26
314.1
111.49
169.15
202.1
240.85
256
210.84
287.27
281.99
109.34
290.07
110.47
120.34
209.75
262.5
237.64
300.54
256.08
181.76
267.14
212.83
152.77
175.69
224.38
164.24
180.89
209.64
259.68
250.95
159.79
314.62
204.97
262.21
163.82
221.68
197.62
253.27
144.17
244.89